<?xml version="1.0" encoding="UTF-8"?>

<!-- generated on 2022-08-02 19:06:28 by Eclipse SUMO GUI Version v1_13_0+1326-188503db3b5
<configuration xmlns:xsi="http://www.w3.org/2001/XMLSchema-instance" xsi:noNamespaceSchemaLocation="http://sumo.dlr.de/xsd/sumoConfiguration.xsd">

    <input>
        <net-file value="osm.net.xml"/>
        <route-files value="osm.passenger.trips.xml"/>
        <additional-files value="osm.poly.xml,osm.add.xml"/>
    </input>

    <output>
        <fcd-output value="fcd2.xml"/>
        <summary-output value="summary2.xml"/>
        <tripinfo-output value="tripinfo2.xml"/>
        <vehroute-output value="vehroute2.xml"/>
    </output>

    <processing>
        <ignore-route-errors value="true"/>
    </processing>

    <routing>
        <routing-algorithm value="astar"/>
        <device.rerouting.probability value="1"/>
        <device.rerouting.adaptation-steps value="18"/>
        <device.rerouting.adaptation-interval value="10"/>
        <device.rerouting.init-with-loaded-weights value="true"/>
    </routing>

    <report>
        <verbose value="true"/>
        <duration-log.statistics value="true"/>
        <no-step-log value="true"/>
    </report>

    <traci_server>
        <remote-port value="60155"/>
    </traci_server>

    <gui_only>
        <gui-settings-file value="osm.view.xml"/>
    </gui_only>

</configuration>
-->

<tripinfos xmlns:xsi="http://www.w3.org/2001/XMLSchema-instance" xsi:noNamespaceSchemaLocation="http://sumo.dlr.de/xsd/tripinfo_file.xsd">
    <tripinfo id="veh13" depart="33.00" departLane="4937070#0_1" departPos="1.49" departSpeed="0.00" departDelay="0.32" arrival="100.00" arrivalLane="326772508#2_0" arrivalPos="82.72" arrivalSpeed="14.24" duration="67.00" routeLength="778.28" waitingTime="0.00" waitingCount="0" stopTime="0.00" timeLoss="10.38" rerouteNo="1" devices="vehroute_veh13 tripinfo_veh13 routing_veh13 fcd_veh13" vType="veh_passenger" speedFactor="1.05" vaporized=""/>
    <tripinfo id="veh3" depart="8.00" departLane="55668397_0" departPos="5.10" departSpeed="0.00" departDelay="0.46" arrival="107.00" arrivalLane="-192108787#0_0" arrivalPos="18.48" arrivalSpeed="8.76" duration="99.00" routeLength="1111.72" waitingTime="0.00" waitingCount="0" stopTime="0.00" timeLoss="14.11" rerouteNo="1" devices="vehroute_veh3 tripinfo_veh3 routing_veh3 fcd_veh3" vType="veh_passenger" speedFactor="1.08" vaporized=""/>
    <tripinfo id="veh21" depart="53.00" departLane="-150800557#1_0" departPos="0.41" departSpeed="0.00" departDelay="0.22" arrival="144.00" arrivalLane="-40260272#2_0" arrivalPos="1.81" arrivalSpeed="3.30" duration="91.00" routeLength="750.31" waitingTime="12.00" waitingCount="2" stopTime="0.00" timeLoss="39.42" rerouteNo="1" devices="vehroute_veh21 tripinfo_veh21 routing_veh21 fcd_veh21" vType="veh_passenger" speedFactor="1.16" vaporized=""/>
    <tripinfo id="veh12" depart="31.00" departLane="-20485040#11_0" departPos="5.10" departSpeed="0.00" departDelay="0.84" arrival="149.00" arrivalLane="-22566798#1_0" arrivalPos="139.56" arrivalSpeed="13.50" duration="118.00" routeLength="1211.42" waitingTime="10.00" waitingCount="1" stopTime="0.00" timeLoss="29.65" rerouteNo="1" devices="vehroute_veh12 tripinfo_veh12 routing_veh12 fcd_veh12" vType="veh_passenger" speedFactor="1.03" vaporized=""/>
    <tripinfo id="veh34" depart="86.00" departLane="627577866#1_0" departPos="5.10" departSpeed="0.00" departDelay="0.54" arrival="153.00" arrivalLane="13904645#2_0" arrivalPos="34.12" arrivalSpeed="8.42" duration="67.00" routeLength="686.71" waitingTime="3.00" waitingCount="1" stopTime="0.00" timeLoss="14.82" rerouteNo="1" devices="vehroute_veh34 tripinfo_veh34 routing_veh34 fcd_veh34" vType="veh_passenger" speedFactor="1.15" vaporized=""/>
    <tripinfo id="veh2" depart="6.00" departLane="3936652#2_0" departPos="5.10" departSpeed="0.00" departDelay="0.97" arrival="163.00" arrivalLane="37747503#1_1" arrivalPos="74.05" arrivalSpeed="13.23" duration="157.00" routeLength="1196.44" waitingTime="34.00" waitingCount="4" stopTime="0.00" timeLoss="65.56" rerouteNo="1" devices="vehroute_veh2 tripinfo_veh2 routing_veh2 fcd_veh2" vType="veh_passenger" speedFactor="1.01" vaporized=""/>
    <tripinfo id="veh1" depart="3.00" departLane="-4539929#1_0" departPos="5.10" departSpeed="0.00" departDelay="0.49" arrival="183.00" arrivalLane="-3936650_0" arrivalPos="143.67" arrivalSpeed="7.29" duration="180.00" routeLength="1538.29" waitingTime="22.00" waitingCount="3" stopTime="0.00" timeLoss="49.80" rerouteNo="1" devices="vehroute_veh1 tripinfo_veh1 routing_veh1 fcd_veh1" vType="veh_passenger" speedFactor="0.94" vaporized=""/>
    <tripinfo id="veh8" depart="21.00" departLane="44069390#0_0" departPos="5.10" departSpeed="0.00" departDelay="0.89" arrival="191.00" arrivalLane="-112410779#1_0" arrivalPos="54.37" arrivalSpeed="7.12" duration="170.00" routeLength="1241.97" waitingTime="4.00" waitingCount="1" stopTime="0.00" timeLoss="22.54" rerouteNo="1" devices="vehroute_veh8 tripinfo_veh8 routing_veh8 fcd_veh8" vType="veh_passenger" speedFactor="0.94" vaporized=""/>
    <tripinfo id="veh36" depart="91.00" departLane="293281653#1_2" departPos="5.10" departSpeed="0.00" departDelay="0.51" arrival="191.00" arrivalLane="-4395775#4_0" arrivalPos="18.19" arrivalSpeed="9.73" duration="100.00" routeLength="1048.10" waitingTime="5.00" waitingCount="2" stopTime="0.00" timeLoss="32.14" rerouteNo="1" devices="vehroute_veh36 tripinfo_veh36 routing_veh36 fcd_veh36" vType="veh_passenger" speedFactor="1.17" vaporized=""/>
    <tripinfo id="veh20" depart="51.00" departLane="-3957136#0_0" departPos="5.10" departSpeed="0.00" departDelay="0.73" arrival="198.00" arrivalLane="-4541289#6_0" arrivalPos="53.31" arrivalSpeed="11.85" duration="147.00" routeLength="1168.42" waitingTime="0.00" waitingCount="0" stopTime="0.00" timeLoss="17.85" rerouteNo="1" devices="vehroute_veh20 tripinfo_veh20 routing_veh20 fcd_veh20" vType="veh_passenger" speedFactor="0.94" vaporized=""/>
    <tripinfo id="veh52" depart="131.00" departLane="140673637#2_0" departPos="5.10" departSpeed="0.00" departDelay="0.30" arrival="205.00" arrivalLane="-37692199#0_1" arrivalPos="55.25" arrivalSpeed="11.19" duration="74.00" routeLength="564.82" waitingTime="11.00" waitingCount="1" stopTime="0.00" timeLoss="23.65" rerouteNo="1" devices="vehroute_veh52 tripinfo_veh52 routing_veh52 fcd_veh52" vType="veh_passenger" speedFactor="0.85" vaporized=""/>
    <tripinfo id="veh23" depart="58.00" departLane="3708865#4_0" departPos="5.10" departSpeed="0.00" departDelay="0.19" arrival="211.00" arrivalLane="-7990020#1_0" arrivalPos="19.71" arrivalSpeed="7.12" duration="153.00" routeLength="1187.06" waitingTime="20.00" waitingCount="4" stopTime="0.00" timeLoss="50.43" rerouteNo="1" devices="vehroute_veh23 tripinfo_veh23 routing_veh23 fcd_veh23" vType="veh_passenger" speedFactor="1.01" vaporized=""/>
    <tripinfo id="veh31" depart="78.00" departLane="-528915436#0_0" departPos="5.10" departSpeed="0.00" departDelay="0.08" arrival="213.00" arrivalLane="-4395933#8_0" arrivalPos="20.51" arrivalSpeed="8.75" duration="135.00" routeLength="1132.30" waitingTime="12.00" waitingCount="3" stopTime="0.00" timeLoss="51.42" rerouteNo="1" devices="vehroute_veh31 tripinfo_veh31 routing_veh31 fcd_veh31" vType="veh_passenger" speedFactor="1.13" vaporized=""/>
    <tripinfo id="veh18" depart="46.00" departLane="50214631#2_0" departPos="0.20" departSpeed="0.00" departDelay="0.76" arrival="215.00" arrivalLane="306917253#1_0" arrivalPos="0.20" arrivalSpeed="6.87" duration="169.00" routeLength="1270.62" waitingTime="6.00" waitingCount="1" stopTime="0.00" timeLoss="27.23" rerouteNo="1" devices="vehroute_veh18 tripinfo_veh18 routing_veh18 fcd_veh18" vType="veh_passenger" speedFactor="0.88" vaporized=""/>
    <tripinfo id="veh7" depart="18.00" departLane="-39179549#0_0" departPos="5.10" departSpeed="0.00" departDelay="0.41" arrival="217.00" arrivalLane="317183888_0" arrivalPos="13.01" arrivalSpeed="11.20" duration="199.00" routeLength="1749.93" waitingTime="7.00" waitingCount="1" stopTime="0.00" timeLoss="32.19" rerouteNo="1" devices="vehroute_veh7 tripinfo_veh7 routing_veh7 fcd_veh7" vType="veh_passenger" speedFactor="0.89" vaporized=""/>
    <tripinfo id="veh29" depart="73.00" departLane="279585244#1_0" departPos="5.10" departSpeed="0.00" departDelay="0.11" arrival="218.00" arrivalLane="3785444#3_0" arrivalPos="40.95" arrivalSpeed="6.69" duration="145.00" routeLength="1121.90" waitingTime="6.00" waitingCount="1" stopTime="0.00" timeLoss="29.93" rerouteNo="1" devices="vehroute_veh29 tripinfo_veh29 routing_veh29 fcd_veh29" vType="veh_passenger" speedFactor="0.92" vaporized=""/>
    <tripinfo id="veh19" depart="48.00" departLane="3789703#0_2" departPos="4.44" departSpeed="13.08" departDelay="0.24" arrival="220.00" arrivalLane="-13904655_0" arrivalPos="67.31" arrivalSpeed="6.80" duration="172.00" routeLength="1232.01" waitingTime="27.00" waitingCount="2" stopTime="0.00" timeLoss="49.42" rerouteNo="1" devices="vehroute_veh19 tripinfo_veh19 routing_veh19 fcd_veh19" vType="veh_passenger" speedFactor="0.94" vaporized=""/>
    <tripinfo id="veh15" depart="38.00" departLane="23076537#0_0" departPos="5.10" departSpeed="0.00" departDelay="0.30" arrival="221.00" arrivalLane="85418338_0" arrivalPos="7.38" arrivalSpeed="8.28" duration="183.00" routeLength="2006.66" waitingTime="15.00" waitingCount="2" stopTime="0.00" timeLoss="44.13" rerouteNo="1" devices="vehroute_veh15 tripinfo_veh15 routing_veh15 fcd_veh15" vType="veh_passenger" speedFactor="1.12" vaporized=""/>
    <tripinfo id="veh37" depart="93.00" departLane="317183891#0_0" departPos="5.10" departSpeed="0.00" departDelay="0.00" arrival="222.00" arrivalLane="56007693#1_0" arrivalPos="97.86" arrivalSpeed="7.24" duration="129.00" routeLength="1138.53" waitingTime="18.00" waitingCount="2" stopTime="0.00" timeLoss="39.12" rerouteNo="1" devices="vehroute_veh37 tripinfo_veh37 routing_veh37 fcd_veh37" vType="veh_passenger" speedFactor="0.99" vaporized=""/>
    <tripinfo id="veh38" depart="96.00" departLane="111286353#2_0" departPos="5.10" departSpeed="0.00" departDelay="0.49" arrival="226.00" arrivalLane="-39117800#2_0" arrivalPos="48.42" arrivalSpeed="8.38" duration="130.00" routeLength="1051.63" waitingTime="6.00" waitingCount="2" stopTime="0.00" timeLoss="28.14" rerouteNo="1" devices="vehroute_veh38 tripinfo_veh38 routing_veh38 fcd_veh38" vType="veh_passenger" speedFactor="1.02" vaporized=""/>
    <tripinfo id="veh39" depart="99.00" departLane="998772221#2_2" departPos="0.20" departSpeed="0.00" departDelay="0.97" arrival="230.00" arrivalLane="147077493#2_0" arrivalPos="91.50" arrivalSpeed="6.98" duration="131.00" routeLength="816.03" waitingTime="15.00" waitingCount="1" stopTime="0.00" timeLoss="35.62" rerouteNo="1" devices="vehroute_veh39 tripinfo_veh39 routing_veh39 fcd_veh39" vType="veh_passenger" speedFactor="0.97" vaporized=""/>
    <tripinfo id="veh24" depart="61.00" departLane="-80448023#0_0" departPos="5.10" departSpeed="0.00" departDelay="0.68" arrival="237.00" arrivalLane="-38098902#4_0" arrivalPos="25.85" arrivalSpeed="7.84" duration="176.00" routeLength="1247.65" waitingTime="19.00" waitingCount="4" stopTime="0.00" timeLoss="54.25" rerouteNo="1" devices="vehroute_veh24 tripinfo_veh24 routing_veh24 fcd_veh24" vType="veh_passenger" speedFactor="0.97" vaporized=""/>
    <tripinfo id="veh49" depart="124.00" departLane="-233718299_0" departPos="5.10" departSpeed="0.00" departDelay="0.84" arrival="238.00" arrivalLane="128396776#2_0" arrivalPos="30.91" arrivalSpeed="8.29" duration="114.00" routeLength="933.62" waitingTime="0.00" waitingCount="0" stopTime="0.00" timeLoss="14.99" rerouteNo="1" devices="vehroute_veh49 tripinfo_veh49 routing_veh49 fcd_veh49" vType="veh_passenger" speedFactor="1.00" vaporized=""/>
    <tripinfo id="veh22" depart="56.00" departLane="-22820607#0_0" departPos="5.10" departSpeed="0.00" departDelay="0.70" arrival="243.00" arrivalLane="-4540066#3_0" arrivalPos="60.43" arrivalSpeed="8.25" duration="187.00" routeLength="1798.87" waitingTime="17.00" waitingCount="2" stopTime="0.00" timeLoss="45.80" rerouteNo="1" devices="vehroute_veh22 tripinfo_veh22 routing_veh22 fcd_veh22" vType="veh_passenger" speedFactor="1.02" vaporized=""/>
    <tripinfo id="veh30" depart="76.00" departLane="-39944037#1_0" departPos="5.10" departSpeed="0.00" departDelay="0.60" arrival="243.00" arrivalLane="-130294072#1_0" arrivalPos="84.66" arrivalSpeed="6.76" duration="167.00" routeLength="1187.89" waitingTime="28.00" waitingCount="4" stopTime="0.00" timeLoss="57.01" rerouteNo="1" devices="vehroute_veh30 tripinfo_veh30 routing_veh30 fcd_veh30" vType="veh_passenger" speedFactor="0.95" vaporized=""/>
    <tripinfo id="veh33" depart="83.00" departLane="37692490#1_0" departPos="5.10" departSpeed="0.00" departDelay="0.06" arrival="244.00" arrivalLane="1049698333#0_0" arrivalPos="77.84" arrivalSpeed="9.80" duration="161.00" routeLength="1446.38" waitingTime="14.00" waitingCount="3" stopTime="0.00" timeLoss="54.63" rerouteNo="1" devices="vehroute_veh33 tripinfo_veh33 routing_veh33 fcd_veh33" vType="veh_passenger" speedFactor="1.18" vaporized=""/>
    <tripinfo id="veh28" depart="71.00" departLane="928725821#3_0" departPos="5.10" departSpeed="0.00" departDelay="0.62" arrival="246.00" arrivalLane="3708838#2_0" arrivalPos="34.84" arrivalSpeed="6.32" duration="175.00" routeLength="1154.45" waitingTime="14.00" waitingCount="1" stopTime="0.00" timeLoss="33.07" rerouteNo="1" devices="vehroute_veh28 tripinfo_veh28 routing_veh28 fcd_veh28" vType="veh_passenger" speedFactor="0.87" vaporized=""/>
    <tripinfo id="veh35" depart="88.00" departLane="-4395858#5_0" departPos="5.10" departSpeed="0.00" departDelay="0.03" arrival="247.00" arrivalLane="-4215606#2_0" arrivalPos="26.53" arrivalSpeed="8.07" duration="159.00" routeLength="1200.33" waitingTime="12.00" waitingCount="2" stopTime="0.00" timeLoss="37.02" rerouteNo="1" devices="vehroute_veh35 tripinfo_veh35 routing_veh35 fcd_veh35" vType="veh_passenger" speedFactor="1.01" vaporized=""/>
    <tripinfo id="veh27" depart="68.00" departLane="-3708680#2_0" departPos="5.10" departSpeed="0.00" departDelay="0.14" arrival="249.00" arrivalLane="-8301214#0_0" arrivalPos="32.79" arrivalSpeed="6.25" duration="181.00" routeLength="1319.47" waitingTime="5.00" waitingCount="1" stopTime="0.00" timeLoss="36.92" rerouteNo="1" devices="vehroute_veh27 tripinfo_veh27 routing_veh27 fcd_veh27" vType="veh_passenger" speedFactor="0.83" vaporized=""/>
    <tripinfo id="veh5" depart="13.00" departLane="-128676689#1_0" departPos="5.10" departSpeed="0.00" departDelay="0.43" arrival="250.00" arrivalLane="-37865180#0_0" arrivalPos="24.19" arrivalSpeed="10.33" duration="237.00" routeLength="1951.29" waitingTime="24.00" waitingCount="3" stopTime="0.00" timeLoss="55.41" rerouteNo="1" devices="vehroute_veh5 tripinfo_veh5 routing_veh5 fcd_veh5" vType="veh_passenger" speedFactor="0.83" vaporized=""/>
    <tripinfo id="veh25" depart="63.00" departLane="-4395933#5_0" departPos="5.10" departSpeed="0.00" departDelay="0.16" arrival="262.00" arrivalLane="700758895#1_0" arrivalPos="18.84" arrivalSpeed="6.52" duration="199.00" routeLength="1587.21" waitingTime="21.00" waitingCount="4" stopTime="0.00" timeLoss="56.63" rerouteNo="1" devices="vehroute_veh25 tripinfo_veh25 routing_veh25 fcd_veh25" vType="veh_passenger" speedFactor="0.89" vaporized=""/>
    <tripinfo id="veh72" depart="181.00" departLane="128676689#0_0" departPos="5.10" departSpeed="0.00" departDelay="0.03" arrival="269.00" arrivalLane="160963287#4_0" arrivalPos="15.63" arrivalSpeed="6.43" duration="88.00" routeLength="573.38" waitingTime="1.00" waitingCount="1" stopTime="0.00" timeLoss="14.70" rerouteNo="1" devices="vehroute_veh72 tripinfo_veh72 routing_veh72 fcd_veh72" vType="veh_passenger" speedFactor="0.91" vaporized=""/>
    <tripinfo id="veh45" depart="114.00" departLane="83806428#1_0" departPos="5.10" departSpeed="0.00" departDelay="0.89" arrival="273.00" arrivalLane="52288972#1_0" arrivalPos="65.23" arrivalSpeed="8.10" duration="159.00" routeLength="1240.85" waitingTime="6.00" waitingCount="1" stopTime="0.00" timeLoss="27.41" rerouteNo="1" devices="vehroute_veh45 tripinfo_veh45 routing_veh45 fcd_veh45" vType="veh_passenger" speedFactor="1.09" vaporized=""/>
    <tripinfo id="veh6" depart="16.00" departLane="37692282#5_0" departPos="5.10" departSpeed="0.00" departDelay="0.92" arrival="283.00" arrivalLane="23102758#5_0" arrivalPos="28.07" arrivalSpeed="8.54" duration="267.00" routeLength="2268.63" waitingTime="35.00" waitingCount="6" stopTime="0.00" timeLoss="80.07" rerouteNo="1" devices="vehroute_veh6 tripinfo_veh6 routing_veh6 fcd_veh6" vType="veh_passenger" speedFactor="1.05" vaporized=""/>
    <tripinfo id="veh43" depart="109.00" departLane="-14047194#0_0" departPos="5.10" departSpeed="0.00" departDelay="0.92" arrival="286.00" arrivalLane="-83806426#4_0" arrivalPos="72.12" arrivalSpeed="13.41" duration="177.00" routeLength="1626.66" waitingTime="10.00" waitingCount="3" stopTime="0.00" timeLoss="53.35" rerouteNo="1" devices="vehroute_veh43 tripinfo_veh43 routing_veh43 fcd_veh43" vType="veh_passenger" speedFactor="1.03" vaporized=""/>
    <tripinfo id="veh44" depart="111.00" departLane="998772221#0_2" departPos="5.10" departSpeed="0.00" departDelay="0.41" arrival="288.00" arrivalLane="20485040#12_0" arrivalPos="103.79" arrivalSpeed="12.43" duration="177.00" routeLength="2063.11" waitingTime="0.00" waitingCount="0" stopTime="0.00" timeLoss="20.71" rerouteNo="1" devices="vehroute_veh44 tripinfo_veh44 routing_veh44 fcd_veh44" vType="veh_passenger" speedFactor="0.96" vaporized=""/>
    <tripinfo id="veh4" depart="11.00" departLane="12341247#4_0" departPos="5.10" departSpeed="0.00" departDelay="0.95" arrival="289.00" arrivalLane="-128912367_0" arrivalPos="16.34" arrivalSpeed="7.63" duration="278.00" routeLength="2463.56" waitingTime="38.00" waitingCount="5" stopTime="0.00" timeLoss="83.75" rerouteNo="1" devices="vehroute_veh4 tripinfo_veh4 routing_veh4 fcd_veh4" vType="veh_passenger" speedFactor="1.03" vaporized=""/>
    <tripinfo id="veh40" depart="101.00" departLane="-20485036#3_0" departPos="5.10" departSpeed="0.00" departDelay="0.46" arrival="292.00" arrivalLane="-13904661_0" arrivalPos="37.84" arrivalSpeed="9.61" duration="191.00" routeLength="1912.35" waitingTime="0.00" waitingCount="0" stopTime="0.00" timeLoss="29.18" rerouteNo="1" devices="vehroute_veh40 tripinfo_veh40 routing_veh40 fcd_veh40" vType="veh_passenger" speedFactor="1.18" vaporized=""/>
    <tripinfo id="veh66" depart="166.00" departLane="13904691#1_0" departPos="5.10" departSpeed="0.00" departDelay="0.11" arrival="295.00" arrivalLane="233037569_0" arrivalPos="48.16" arrivalSpeed="8.29" duration="129.00" routeLength="959.07" waitingTime="0.00" waitingCount="0" stopTime="0.00" timeLoss="14.82" rerouteNo="1" devices="vehroute_veh66 tripinfo_veh66 routing_veh66 fcd_veh66" vType="veh_passenger" speedFactor="1.02" vaporized=""/>
    <tripinfo id="veh74" depart="186.00" departLane="-39944039#2_0" departPos="3.37" departSpeed="0.00" departDelay="0.00" arrival="297.00" arrivalLane="-39117802#1_0" arrivalPos="43.40" arrivalSpeed="7.23" duration="111.00" routeLength="896.20" waitingTime="0.00" waitingCount="0" stopTime="0.00" timeLoss="19.68" rerouteNo="1" devices="vehroute_veh74 tripinfo_veh74 routing_veh74 fcd_veh74" vType="veh_passenger" speedFactor="1.02" vaporized=""/>
    <tripinfo id="veh46" depart="116.00" departLane="-11685019#0_0" departPos="5.10" departSpeed="0.00" departDelay="0.38" arrival="298.00" arrivalLane="384401180_1" arrivalPos="15.88" arrivalSpeed="13.92" duration="182.00" routeLength="1801.99" waitingTime="11.00" waitingCount="4" stopTime="0.00" timeLoss="53.37" rerouteNo="1" devices="vehroute_veh46 tripinfo_veh46 routing_veh46 fcd_veh46" vType="veh_passenger" speedFactor="1.04" vaporized=""/>
    <tripinfo id="veh53" depart="134.00" departLane="59433203#5_0" departPos="0.20" departSpeed="0.00" departDelay="0.79" arrival="300.00" arrivalLane="52879958_0" arrivalPos="58.92" arrivalSpeed="5.98" duration="166.00" routeLength="1233.07" waitingTime="3.00" waitingCount="2" stopTime="0.00" timeLoss="27.86" rerouteNo="1" devices="vehroute_veh53 tripinfo_veh53 routing_veh53 fcd_veh53" vType="veh_passenger" speedFactor="0.85" vaporized=""/>
    <tripinfo id="veh0" depart="0.00" departLane="372256216#1_0" departPos="5.10" departSpeed="0.00" departDelay="0.00" arrival="307.00" arrivalLane="-128396777#2_0" arrivalPos="94.08" arrivalSpeed="8.53" duration="307.00" routeLength="2597.94" waitingTime="52.00" waitingCount="7" stopTime="0.00" timeLoss="115.56" rerouteNo="1" devices="vehroute_veh0 tripinfo_veh0 routing_veh0 fcd_veh0" vType="veh_passenger" speedFactor="1.06" vaporized=""/>
    <tripinfo id="veh58" depart="146.00" departLane="-1008992999_1" departPos="5.10" departSpeed="0.00" departDelay="0.22" arrival="311.00" arrivalLane="-548793704#0_0" arrivalPos="21.54" arrivalSpeed="8.16" duration="165.00" routeLength="1448.54" waitingTime="13.00" waitingCount="3" stopTime="0.00" timeLoss="47.88" rerouteNo="1" devices="vehroute_veh58 tripinfo_veh58 routing_veh58 fcd_veh58" vType="veh_passenger" speedFactor="1.00" vaporized=""/>
    <tripinfo id="veh16" depart="41.00" departLane="-81982573#1_0" departPos="5.10" departSpeed="0.00" departDelay="0.78" arrival="313.00" arrivalLane="24450825#2_0" arrivalPos="77.94" arrivalSpeed="8.25" duration="272.00" routeLength="2263.60" waitingTime="31.00" waitingCount="4" stopTime="0.00" timeLoss="71.10" rerouteNo="1" devices="vehroute_veh16 tripinfo_veh16 routing_veh16 fcd_veh16" vType="veh_passenger" speedFactor="0.99" vaporized=""/>
    <tripinfo id="veh67" depart="169.00" departLane="-4395890_0" departPos="5.10" departSpeed="0.00" departDelay="0.60" arrival="334.00" arrivalLane="528916932_0" arrivalPos="6.10" arrivalSpeed="8.17" duration="165.00" routeLength="1315.91" waitingTime="0.00" waitingCount="0" stopTime="0.00" timeLoss="23.33" rerouteNo="1" devices="vehroute_veh67 tripinfo_veh67 routing_veh67 fcd_veh67" vType="veh_passenger" speedFactor="0.99" vaporized=""/>
    <tripinfo id="veh77" depart="194.00" departLane="-41565491#0_0" departPos="5.10" departSpeed="0.00" departDelay="0.46" arrival="339.00" arrivalLane="37747135#1_0" arrivalPos="26.34" arrivalSpeed="12.16" duration="145.00" routeLength="1294.59" waitingTime="13.00" waitingCount="2" stopTime="0.00" timeLoss="29.67" rerouteNo="1" devices="vehroute_veh77 tripinfo_veh77 routing_veh77 fcd_veh77" vType="veh_passenger" speedFactor="0.94" vaporized=""/>
    <tripinfo id="veh48" depart="121.00" departLane="-4395933#5_0" departPos="5.10" departSpeed="0.00" departDelay="0.35" arrival="342.00" arrivalLane="3708838#2_0" arrivalPos="34.84" arrivalSpeed="8.52" duration="221.00" routeLength="2159.15" waitingTime="22.00" waitingCount="1" stopTime="0.00" timeLoss="58.91" rerouteNo="1" devices="vehroute_veh48 tripinfo_veh48 routing_veh48 fcd_veh48" vType="veh_passenger" speedFactor="1.09" vaporized=""/>
    <tripinfo id="veh54" depart="136.00" departLane="-48985674_0" departPos="5.10" departSpeed="0.00" departDelay="0.27" arrival="343.00" arrivalLane="3708681#3_0" arrivalPos="33.28" arrivalSpeed="8.59" duration="207.00" routeLength="2344.82" waitingTime="14.00" waitingCount="2" stopTime="0.00" timeLoss="49.09" rerouteNo="1" devices="vehroute_veh54 tripinfo_veh54 routing_veh54 fcd_veh54" vType="veh_passenger" speedFactor="1.17" vaporized=""/>
    <tripinfo id="veh57" depart="144.00" departLane="432565295#3_0" departPos="5.10" departSpeed="0.00" departDelay="0.73" arrival="343.00" arrivalLane="20485040#4_0" arrivalPos="77.30" arrivalSpeed="14.83" duration="199.00" routeLength="2203.54" waitingTime="14.00" waitingCount="1" stopTime="0.00" timeLoss="43.49" rerouteNo="1" devices="vehroute_veh57 tripinfo_veh57 routing_veh57 fcd_veh57" vType="veh_passenger" speedFactor="1.10" vaporized=""/>
    <tripinfo id="veh73" depart="184.00" departLane="-59433203#0_0" departPos="5.10" departSpeed="0.00" departDelay="0.52" arrival="343.00" arrivalLane="317149206_0" arrivalPos="0.20" arrivalSpeed="11.91" duration="159.00" routeLength="1379.02" waitingTime="26.00" waitingCount="3" stopTime="0.00" timeLoss="54.32" rerouteNo="1" devices="vehroute_veh73 tripinfo_veh73 routing_veh73 fcd_veh73" vType="veh_passenger" speedFactor="1.04" vaporized=""/>
    <tripinfo id="veh17" depart="43.00" departLane="4541289#4_0" departPos="5.10" departSpeed="0.00" departDelay="0.27" arrival="344.00" arrivalLane="35078322#3_1" arrivalPos="22.41" arrivalSpeed="7.20" duration="301.00" routeLength="2291.10" waitingTime="50.00" waitingCount="5" stopTime="0.00" timeLoss="104.86" rerouteNo="1" devices="vehroute_veh17 tripinfo_veh17 routing_veh17 fcd_veh17" vType="veh_passenger" speedFactor="0.93" vaporized=""/>
    <tripinfo id="veh51" depart="129.00" departLane="52879958_0" departPos="5.10" departSpeed="0.00" departDelay="0.81" arrival="354.00" arrivalLane="-4395858#0_0" arrivalPos="21.11" arrivalSpeed="6.23" duration="225.00" routeLength="1898.76" waitingTime="12.00" waitingCount="2" stopTime="0.00" timeLoss="39.48" rerouteNo="1" devices="vehroute_veh51 tripinfo_veh51 routing_veh51 fcd_veh51" vType="veh_passenger" speedFactor="0.88" vaporized=""/>
    <tripinfo id="veh68" depart="171.00" departLane="12341254#1_0" departPos="5.10" departSpeed="0.00" departDelay="0.08" arrival="357.00" arrivalLane="-3809981#2_0" arrivalPos="25.93" arrivalSpeed="6.68" duration="186.00" routeLength="1452.05" waitingTime="23.00" waitingCount="3" stopTime="0.00" timeLoss="53.11" rerouteNo="1" devices="vehroute_veh68 tripinfo_veh68 routing_veh68 fcd_veh68" vType="veh_passenger" speedFactor="0.94" vaporized=""/>
    <tripinfo id="veh32" depart="81.00" departLane="-3809980#0_0" departPos="5.10" departSpeed="0.00" departDelay="0.57" arrival="361.00" arrivalLane="768702586#2_0" arrivalPos="39.48" arrivalSpeed="6.67" duration="280.00" routeLength="2007.31" waitingTime="36.00" waitingCount="4" stopTime="0.00" timeLoss="83.77" rerouteNo="1" devices="vehroute_veh32 tripinfo_veh32 routing_veh32 fcd_veh32" vType="veh_passenger" speedFactor="0.93" vaporized=""/>
    <tripinfo id="veh82" depart="207.00" departLane="-22566799#1_0" departPos="5.10" departSpeed="0.00" departDelay="0.89" arrival="361.00" arrivalLane="128396774#0_0" arrivalPos="66.43" arrivalSpeed="8.06" duration="154.00" routeLength="1166.03" waitingTime="15.00" waitingCount="2" stopTime="0.00" timeLoss="40.18" rerouteNo="1" devices="vehroute_veh82 tripinfo_veh82 routing_veh82 fcd_veh82" vType="veh_passenger" speedFactor="0.98" vaporized=""/>
    <tripinfo id="veh10" depart="26.00" departLane="-59433205_0" departPos="5.10" departSpeed="0.00" departDelay="0.87" arrival="364.00" arrivalLane="-354369976#6_0" arrivalPos="5.71" arrivalSpeed="6.88" duration="338.00" routeLength="2240.86" waitingTime="18.00" waitingCount="4" stopTime="0.00" timeLoss="65.76" rerouteNo="1" devices="vehroute_veh10 tripinfo_veh10 routing_veh10 fcd_veh10" vType="veh_passenger" speedFactor="0.86" vaporized=""/>
    <tripinfo id="veh47" depart="119.00" departLane="3785445#3_0" departPos="5.10" departSpeed="0.00" departDelay="0.87" arrival="364.00" arrivalLane="22820607#0_0" arrivalPos="25.05" arrivalSpeed="8.62" duration="245.00" routeLength="2348.35" waitingTime="31.00" waitingCount="5" stopTime="0.00" timeLoss="72.91" rerouteNo="1" devices="vehroute_veh47 tripinfo_veh47 routing_veh47 fcd_veh47" vType="veh_passenger" speedFactor="1.04" vaporized=""/>
    <tripinfo id="veh126" depart="317.00" departLane="37692415#0_0" departPos="5.10" departSpeed="6.15" departDelay="0.30" arrival="370.00" arrivalLane="-114208222#1_0" arrivalPos="14.12" arrivalSpeed="9.38" duration="53.00" routeLength="433.40" waitingTime="0.00" waitingCount="0" stopTime="0.00" timeLoss="7.88" rerouteNo="1" devices="vehroute_veh126 tripinfo_veh126 routing_veh126 fcd_veh126" vType="veh_passenger" speedFactor="1.18" vaporized=""/>
    <tripinfo id="veh59" depart="149.00" departLane="-128005879#2_0" departPos="5.10" departSpeed="0.00" departDelay="0.70" arrival="378.00" arrivalLane="67139158#0_0" arrivalPos="44.31" arrivalSpeed="8.20" duration="229.00" routeLength="1893.41" waitingTime="14.00" waitingCount="2" stopTime="0.00" timeLoss="56.59" rerouteNo="1" devices="vehroute_veh59 tripinfo_veh59 routing_veh59 fcd_veh59" vType="veh_passenger" speedFactor="1.00" vaporized=""/>
    <tripinfo id="veh97" depart="244.00" departLane="111286353#6_0" departPos="5.10" departSpeed="0.00" departDelay="0.19" arrival="378.00" arrivalLane="-13904706#4_0" arrivalPos="25.99" arrivalSpeed="8.20" duration="134.00" routeLength="1252.66" waitingTime="16.00" waitingCount="2" stopTime="0.00" timeLoss="37.64" rerouteNo="1" devices="vehroute_veh97 tripinfo_veh97 routing_veh97 fcd_veh97" vType="veh_passenger" speedFactor="1.02" vaporized=""/>
    <tripinfo id="veh90" depart="227.00" departLane="-4215667_0" departPos="5.10" departSpeed="0.00" departDelay="0.79" arrival="380.00" arrivalLane="64270039#1_1" arrivalPos="20.10" arrivalSpeed="8.67" duration="153.00" routeLength="1301.79" waitingTime="0.00" waitingCount="0" stopTime="0.00" timeLoss="19.85" rerouteNo="1" devices="vehroute_veh90 tripinfo_veh90 routing_veh90 fcd_veh90" vType="veh_passenger" speedFactor="1.15" vaporized=""/>
    <tripinfo id="veh50" depart="126.00" departLane="13904645#0_1" departPos="5.10" departSpeed="0.00" departDelay="0.33" arrival="383.00" arrivalLane="80479196_0" arrivalPos="51.65" arrivalSpeed="6.21" duration="257.00" routeLength="1971.75" waitingTime="28.00" waitingCount="2" stopTime="0.00" timeLoss="62.21" rerouteNo="1" devices="vehroute_veh50 tripinfo_veh50 routing_veh50 fcd_veh50" vType="veh_passenger" speedFactor="0.90" vaporized=""/>