<?xml version="1.0" encoding="UTF-8"?>

<!-- generated on 2022-08-02 19:06:28 by Eclipse SUMO GUI Version v1_13_0+1326-188503db3b5
<configuration xmlns:xsi="http://www.w3.org/2001/XMLSchema-instance" xsi:noNamespaceSchemaLocation="http://sumo.dlr.de/xsd/sumoConfiguration.xsd">

    <input>
        <net-file value="osm.net.xml"/>
        <route-files value="osm.passenger.trips.xml"/>
        <additional-files value="osm.poly.xml,osm.add.xml"/>
    </input>

    <output>
        <fcd-output value="fcd2.xml"/>
        <summary-output value="summary2.xml"/>
        <tripinfo-output value="tripinfo2.xml"/>
        <vehroute-output value="vehroute2.xml"/>
    </output>

    <processing>
        <ignore-route-errors value="true"/>
    </processing>

    <routing>
        <routing-algorithm value="astar"/>
        <device.rerouting.probability value="1"/>
        <device.rerouting.adaptation-steps value="18"/>
        <device.rerouting.adaptation-interval value="10"/>
        <device.rerouting.init-with-loaded-weights value="true"/>
    </routing>

    <report>
        <verbose value="true"/>
        <duration-log.statistics value="true"/>
        <no-step-log value="true"/>
    </report>

    <traci_server>
        <remote-port value="60155"/>
    </traci_server>

    <gui_only>
        <gui-settings-file value="osm.view.xml"/>
    </gui_only>

</configuration>
-->

<routes xmlns:xsi="http://www.w3.org/2001/XMLSchema-instance" xsi:noNamespaceSchemaLocation="http://sumo.dlr.de/xsd/routes_file.xsd">
    <vehicle id="veh13" type="veh_passenger" depart="33.00" departLane="1" arrival="100.00">
        <route edges="4937070#0 -4937070#0 -683409080 -32117788#9 -32117788#8 -32117788#6 -32117788#4 -32117788#1 -32117788#0 -3787117#1 -4395609#3 -4395609#2 -4395609#1 -4395609#0 -290533428 -326772508#2 326772508#2"/>
    </vehicle>

    <vehicle id="veh3" type="veh_passenger" depart="8.00" departLane="0" arrival="107.00">
        <route edges="55668397 55690432#0 55690432#1 4395933#7 4395933#8 4395933#9 4395933#10 293281653#0 293281653#1 83806426#0 83806426#1 83806426#2 83806426#4 -372245390#1 -37692198#3 -37692198#1 -37692198#0 -192108787#1 -192108787#0"/>
    </vehicle>

    <vehicle id="veh21" type="veh_passenger" depart="53.00" departLane="0" arrival="144.00">
        <route edges="-150800557#1 -150800557#0 -384401180 -37747137#1 -37747137#0 4385874#0 4385874#1 37747728#0 37747728#1 37747133#1 37747008#0 37747008#1 37747135#0 160963287#0 160963287#1 40260272#1 40260272#2 -40260272#2"/>
    </vehicle>

    <vehicle id="veh12" type="veh_passenger" depart="31.00" departLane="0" arrival="149.00">
        <route edges="-20485040#11 20485040#11 20485040#12 20485040#13 128185886#1 128185886#2 37747501 4541289#0 4541289#1 4541289#2 4541289#3 4541289#4 4541289#5 4541289#6 4541289#7 371391166#0 371391166#1 371391166#2 22566799#1 -22566798#1"/>
    </vehicle>

    <vehicle id="veh34" type="veh_passenger" depart="86.00" departLane="0" arrival="153.00">
        <route edges="627577866#1 627577866#2 37865178 37865179#1 37865180#0 37865180#1 520012242 354359922 354359921 -37866820 13904645#0 13904645#1 13904645#2"/>
    </vehicle>

    <vehicle id="veh2" type="veh_passenger" depart="6.00" departLane="0" arrival="163.00">
        <route edges="3936652#2 3936652#3 -40260270#5 -40260270#4 -40260270#3 -40260270#2 -40260270#1 -40260270#0 -293281654#2 -293281654#1 37747133#1 37747008#0 37747008#1 55814746 4937068 917565357 70726569 128185886#1 128185886#2 37747501 -37747501 37747503#0 37747503#1"/>
    </vehicle>

    <vehicle id="veh1" type="veh_passenger" depart="3.00" departLane="0" arrival="183.00">
        <route edges="-4539929#1 20485040#4 20485040#5 20485040#6 20485040#8 20485040#9 20485040#10 20485040#11 20485040#12 20485040#13 -70726569 -740743747 -258341362 -55814746 37747135#0 37747135#1 37747135#2 37747645#1 37747645#2 293281653#0 293281653#1 83806426#0 83806426#1 83806426#2 83806426#4 -372245390#1 -3936650"/>
    </vehicle>

    <vehicle id="veh8" type="veh_passenger" depart="21.00" departLane="0" arrival="191.00">
        <route edges="44069390#0 44069390#1 44069392 -41228866#2 29333273#0 29333273#1 29333273#2 -24450825#2 -24450825#0 -37692306 -150800557#1 -150800557#0 -384401180 -37747137#1 -37747137#0 -42239605#2 -42239605#1 -37747648#3 -37747648#2 -37747648#0 -372245389#1 -372245389#0 -112410779#1"/>
    </vehicle>

    <vehicle id="veh36" type="veh_passenger" depart="91.00" departLane="2" arrival="191.00">
        <route edges="293281653#1 37747728#0 37747728#1 -4395933#10 -4395933#9 -4395933#8 -4395933#7 -4395933#5 -4395933#2 -4395933#1 -4395933#0 -384401184#4 -384401184#3 -384401184#2 -384401184#1 -317183891#3 -317183891#0 -317183888 -32117787 4395775#0 4395775#1 4395775#2 4395775#4 -4395775#4"/>
    </vehicle>

    <vehicle id="veh20" type="veh_passenger" depart="51.00" departLane="0" arrival="198.00">
        <route edges="-3957136#0 3957136#0 3957136#1 3936648 3936652#0 3936652#1 3936652#2 3936652#3 1077291753#1 20484463#0 20484463#1 20484464 20484465#0 20484465#1 20484465#2 20484465#3 366887650#0 366887650#2 -4541289#7 -4541289#6"/>
    </vehicle>

    <vehicle id="veh52" type="veh_passenger" depart="131.00" departLane="0" arrival="205.00">
        <route edges="140673637#2 140673637#3 556290239#1 556290239#2 556290239#3 556290239#4 547766101#0 547766101#1 547766101#2 547766101#3 -556290242#1 -556290242#0 -37692199#2 -37692199#1 -37692199#0"/>
    </vehicle>

    <vehicle id="veh23" type="veh_passenger" depart="58.00" departLane="0" arrival="211.00">
        <route edges="3708865#4 3708865#5 3708865#6 3708865#7 871451863#0 871451863#1 871451863#2 871451863#4 871451863#5 -32117788#1 -32117788#0 -3787117#1 4395931 317183888 317183891#0 317183891#3 4395830 4395858#0 -7990023#1 -7990023#0 -7990020#3 -7990020#2 -7990020#1"/>
    </vehicle>

    <vehicle id="veh31" type="veh_passenger" depart="78.00" departLane="0" arrival="213.00">
        <route edges="-528915436#0 528915436#0 -24234804 -14047194#0 -14047190#2 -14047190#1 -14047190#0 -4395775#4 -4395775#2 -4395775#1 -4395775#0 3787117#1 -3787117#1 4395931 317183888 317183891#0 317183891#3 384401184#1 384401184#2 384401184#3 384401184#4 384401184#5 4395933#1 4395933#2 4395933#5 4395933#7 4395933#8 -4395933#8"/>
    </vehicle>

    <vehicle id="veh18" type="veh_passenger" depart="46.00" departLane="0" arrival="215.00">
        <route edges="50214631#2 584286612#0 584286612#1 584286612#2 584286612#3 584286613 481221021 162745567#1 162745567#3 162745567#4 37746962 915818298 37692198#1 37692198#3 -3936650 128396774#0 128396774#1 128396774#2 128396774#3 128396774#4 128396774#5 128396774#6 128396774#7 306917253#0 306917253#1"/>
    </vehicle>

    <vehicle id="veh7" type="veh_passenger" depart="18.00" departLane="0" arrival="217.00">
        <route edges="-39179549#0 39179549#0 39179549#1 39179549#2 39179549#3 432565295#7 432565295#8 585819383#0 585819383#1 -52324405 -370381577#1 -370381577#0 -998772220#0 998776255 998772221#0 998772221#2 -4396147#2 -4396147#1 -4396147#0 -317183878 -32117786#8 -32117786#7 -32117786#5 -32117786#4 -32117786#3 -32117786#2 -32117786#1 -632121623#3 -632121623#2 -632121623#1 -632121623#0 -4395775#4 -4395775#2 -4395775#1 -4395775#0 3787117#1 -3787117#1 4395931 317183888"/>
    </vehicle>

    <vehicle id="veh29" type="veh_passenger" depart="73.00" departLane="0" arrival="218.00">
        <route edges="279585244#1 -4395775#2 -4395775#1 -4395775#0 3787117#1 -3787117#1 4395931 317183888 317183891#0 317183891#3 384401184#1 384401184#2 384401184#3 384401184#4 3785441#1 3785441#2 3809978#0 3785444#0 3785444#1 3785444#3"/>
    </vehicle>

    <vehicle id="veh19" type="veh_passenger" depart="48.00" departLane="2" departSpeed="13.076" speedFactor="0.9414" arrival="220.00">
        <route edges="3789703#0 3789703#1 3789703#2 41851537#0 768702579 474506101#0 474506101#2 83806415 49961185 114207515 909735863 -4385840#2 4263427#6 627577866#1 627577866#2 37865178 37865179#1 37865180#0 37865180#1 13904647#1 520012241#0 520012241#1 1031727104 520012240 13904708#0 13904708#1 13904708#2 13904655 -13904655"/>
    </vehicle>

    <vehicle id="veh15" type="veh_passenger" depart="38.00" departLane="0" arrival="221.00">
        <route edges="23076537#0 23076537#1 -317697975#1 -317697975#0 -371391166#2 -371391166#1 -371391166#0 -4541289#7 -4541289#6 -4541289#5 -4541289#4 -4541289#3 -4541289#2 -4541289#1 -4541289#0 -37747501 37747503#0 37747503#1 -70726569 -740743747 -258341362 -55814746 37747135#0 37747135#1 37747135#2 37747645#1 37747645#2 293281653#0 293281653#1 83806428#0 83806428#1 37747137#0 37747137#1 42293718#1 42293718#2 42293718#3 42293718#4 42293718#5 42293718#6 42293718#7 85418338"/>
    </vehicle>

    <vehicle id="veh37" type="veh_passenger" depart="93.00" departLane="0" arrival="222.00">
        <route edges="317183891#0 317183891#3 384401184#1 384401184#2 384401184#3 384401184#4 384401184#5 4395933#1 4395933#2 4395933#5 4395933#7 4395933#8 4395933#9 4395933#10 37747133#1 37747008#0 37747008#1 55814746 4937068 917565357 70726569 128185886#1 128185886#2 56007693#1"/>
    </vehicle>

    <vehicle id="veh38" type="veh_passenger" depart="96.00" departLane="0" arrival="226.00">
        <route edges="111286353#2 111286353#3 111286353#4 111286353#5 111286353#6 111286353#7 4385874#0 4385874#1 37747728#0 37747728#1 37747133#1 37747008#0 37747008#1 37747135#0 160963287#0 160963287#1 160963287#2 160963287#3 160963287#4 160963287#5 160963287#6 -39117800#2"/>
    </vehicle>

    <vehicle id="veh39" type="veh_passenger" depart="99.00" departLane="2" arrival="230.00">
        <route edges="998772221#2 -4396147#2 -4396147#1 -4396147#0 -317183878 317183903#0 317183903#1 261557471#0 928725830 928725828#1 928725828#2 4396062#0 4396062#1 4396062#2 928725827 -360319695#0 147077493#0 147077493#2"/>
    </vehicle>

    <vehicle id="veh24" type="veh_passenger" depart="61.00" departLane="0" arrival="237.00">
        <route edges="-80448023#0 -4395858#5 4395858#5 80448023#0 80448023#1 4395891#1 4395891#2 150800556#0 -150800557#1 -150800557#0 -384401180 -37747137#1 -37747137#0 4385874#0 4385874#1 37747728#0 37747728#1 37747133#1 37747008#0 37747008#1 37747135#0 160963287#0 160963287#1 160963287#2 160963287#3 -38098902#4"/>
    </vehicle>

    <vehicle id="veh49" type="veh_passenger" depart="124.00" departLane="0" arrival="238.00">
        <route edges="-233718299 114208222#1 114208222#2 -121166756#0 37746962 915818298 37692198#1 37692198#3 -3936650 128396774#0 128396774#1 128396774#2 128396774#3 128396774#4 128396776#0 128396776#2"/>
    </vehicle>

    <vehicle id="veh22" type="veh_passenger" depart="56.00" departLane="0" arrival="243.00">
        <route edges="-22820607#0 -4541293#1 -317697974 -4937392#2 -4937392#1 -4937392#0 -541741587 -547766101#3 -547766101#2 -547766101#1 -547766101#0 -556290239#4 -556290239#3 -556290239#2 -556290239#1 -556290239#0 -40260270#5 -40260270#4 -40260270#3 -40260270#2 -40260270#1 -40260270#0 -293281654#2 -293281654#1 37747133#1 37747008#0 37747008#1 55814746 4937068 917565357 70726569 -20485040#13 -20485040#12 -20485040#11 -20485040#10 4540066#1 4540066#3 -4540066#3"/>
    </vehicle>

    <vehicle id="veh30" type="veh_passenger" depart="76.00" departLane="0" arrival="243.00">
        <route edges="-39944037#1 -39944037#0 -40260270#1 -40260270#0 -293281654#2 -293281654#1 37747133#1 37747008#0 37747008#1 55814746 4937068 917565357 70726569 128185886#1 128185886#2 37747501 1008992999 317149206 56007677 -4541097#0 -130294072#2 -130294072#1"/>
    </vehicle>

    <vehicle id="veh33" type="veh_passenger" depart="83.00" departLane="0" arrival="244.00">
        <route edges="37692490#1 37692490#3 474506102 515236648#0 3789702 43100899#0 43100899#1 162745567#1 162745567#3 162745567#4 37746962 915818298 37692198#1 37692198#3 372245390#1 -83806426#4 114277935#1 114277935#2 244948462 -1049698333#0 1049698333#0"/>
    </vehicle>

    <vehicle id="veh28" type="veh_passenger" depart="71.00" departLane="0" arrival="246.00">
        <route edges="928725821#3 556040851#0 556040851#3 147075690 31028290 229061163#0 229061163#1 4908204#0 4908204#1 147075696#0 -317027067#1 -52321641#5 -52321641#4 -52321641#3 -52321641#2 -52321641#0 -310196055 909777279 310196056 893972083 3789571#0 3789571#1 3789571#2 3789571#3 3789571#4 876578186 3708838#2"/>
    </vehicle>

    <vehicle id="veh35" type="veh_passenger" depart="88.00" departLane="0" arrival="247.00">
        <route edges="-4395858#5 -4395858#4 -4395858#2 -4395858#1 -4395858#0 -4395830 -317183891#3 -317183891#0 -317183888 -32117787 -4395609#3 -4395609#2 -4395609#1 -4395609#0 -83517075#1 -83517075#0 -3785445#6 -3785445#5 -3785445#4 4215606#0 -4215606#5 -4215606#4 -4215606#3 -4215606#2"/>
    </vehicle>

    <vehicle id="veh27" type="veh_passenger" depart="68.00" departLane="0" arrival="249.00">
        <route edges="-3708680#2 3708680#2 3708680#4 871451863#0 871451863#1 871451863#2 871451863#4 871451863#5 -32117788#1 -32117788#0 -3787117#1 4395931 317183888 317183891#0 317183891#3 384401184#1 384401184#2 384401184#3 384401184#4 3785441#1 3785441#2 3809978#0 3785444#0 8301214#0 -8301214#0"/>
    </vehicle>

    <vehicle id="veh5" type="veh_passenger" depart="13.00" departLane="0" arrival="250.00">
        <route edges="-128676689#1 -4540245#4 -4540245#3 -4540245#2 -4540245#1 4395933#1 4395933#2 4395933#5 4395933#7 4395933#8 4395933#9 4395933#10 293281654#1 293281654#2 915820855 40260270#1 40260270#2 40260270#3 40260270#4 40260270#5 556290239#0 556290239#1 556290239#2 556290239#3 556290239#4 547766101#0 547766101#1 547766101#2 547766101#3 4263428#0 4263428#1 4263428#2 4263428#4 520012239#0 520012239#1 37866820 -354359921 -354359922 -520012242 -37865180#2 -37865180#0"/>
    </vehicle>

    <vehicle id="veh25" type="veh_passenger" depart="63.00" departLane="0" arrival="262.00">
        <route edges="-4395933#5 -4395933#2 -4395933#1 4395933#1 4395933#2 4395933#5 4395933#7 4395933#8 4395933#9 4395933#10 37747133#1 37747008#0 37747008#1 55814746 4937068 917565357 70726569 128185886#1 128185886#2 37747501 4541289#0 4541289#1 4541289#2 4541289#3 4541289#4 4541289#5 4541289#6 4541289#7 371391166#0 371391166#1 371391166#2 -700758894#2 -700758894#1 -700758894#0 -700758895#1 -700758895#0 700758895#0 700758895#1"/>
    </vehicle>

    <vehicle id="veh72" type="veh_passenger" depart="181.00" departLane="0" arrival="269.00">
        <route edges="128676689#0 128676689#1 128676689#2 128676689#3 128676689#4 128676689#5 37747008#0 37747008#1 37747135#0 160963287#0 160963287#1 160963287#2 160963287#3 160963287#4"/>
    </vehicle>

    <vehicle id="veh45" type="veh_passenger" depart="114.00" departLane="0" arrival="273.00">
        <route edges="83806428#1 -42239605#2 -42239605#1 -37747648#3 -37747648#2 -37747648#0 -372245389#1 -372245389#0 -112410779#1 -112410779#0 -52881850#2 -52881850#0 -547144817 114208220#1 114208220#2 114208223#0 114208223#1 114208223#2 114208223#3 1061460121#1 1061460121#3 52288972#0 52288972#1"/>
    </vehicle>

    <vehicle id="veh6" type="veh_passenger" depart="16.00" departLane="0" arrival="283.00">
        <route edges="37692282#5 37692282#6 37692282#7 4395891#1 4395891#2 150800556#0 -150800557#1 -150800557#0 -384401180 -37747137#1 -37747137#0 4385874#0 4385874#1 37747728#0 37747728#1 293281654#1 293281654#2 915820855 40260270#1 40260270#2 40260270#3 40260270#4 40260270#5 556290239#0 556290239#1 556290239#2 556290239#3 556290239#4 547766101#0 547766101#1 547766101#2 547766101#3 541741587 4937392#0 4937392#1 4937392#2 4937393 4541293#1 4541293#3 23076520 23102758#0 23102758#1 23102758#2 23102758#3 23102758#5"/>
    </vehicle>

    <vehicle id="veh43" type="veh_passenger" depart="109.00" departLane="0" arrival="286.00">
        <route edges="-14047194#0 -14047190#2 -14047190#1 -14047190#0 -4395775#4 -4395775#2 -4395775#1 -4395775#0 3787117#1 -3787117#1 4395931 317183888 317183891#0 317183891#3 384401184#1 384401184#2 384401184#3 384401184#4 384401184#5 4395933#1 4395933#2 4395933#5 4395933#7 4395933#8 4395933#9 4395933#10 293281653#0 293281653#1 83806426#0 83806426#1 83806426#2 83806426#4 -83806426#4"/>
    </vehicle>

    <vehicle id="veh44" type="veh_passenger" depart="111.00" departLane="2" arrival="288.00">
        <route edges="998772221#0 998772221#2 -4396147#2 -4396147#1 -4396147#0 -317183878 -32117786#8 -32117786#7 -32117786#5 -32117786#4 -32117786#3 -32117786#2 -32117786#1 -632121623#3 -632121623#2 -632121623#1 -632121623#0 -4395775#4 -4395775#2 -4395775#1 -4395775#0 3787117#1 32117788#0 32117788#1 32117788#4 32117788#6 32117788#8 32117788#9 4937069 4937070#0 20485040#1 20485040#2 20485040#3 20485040#4 20485040#5 20485040#6 20485040#8 20485040#9 20485040#10 20485040#11 20485040#12"/>
    </vehicle>

    <vehicle id="veh4" type="veh_passenger" depart="11.00" departLane="0" arrival="289.00">
        <route edges="12341247#4 584286612#0 584286612#1 584286612#2 584286612#3 584286613 481221021 162745567#1 162745567#3 162745567#4 37746962 915818298 37692198#1 37692198#3 372245390#1 -83806426#4 -83806426#3 -83806426#1 -83806426#0 37747728#0 37747728#1 37747133#1 37747008#0 37747008#1 55814746 4937068 917565357 70726569 -20485040#13 -20485040#12 -20485040#11 -20485040#10 -20485040#9 -20485040#8 -20485040#6 -20485040#5 -20485040#4 -20485040#3 4539928#1 128465055#1 128465055#2 128912367 -128912367"/>
    </vehicle>

    <vehicle id="veh40" type="veh_passenger" depart="101.00" departLane="0" arrival="292.00">
        <route edges="-20485036#3 -20485036#0 37747500#4 37747500#5 37747500#6 37747500#7 37747500#8 37747500#9 -20484465#3 -20484465#2 -20484465#1 -20484465#0 -905928189 -20484463#1 -20484463#0 -1077291753#1 556290239#0 556290239#1 556290239#2 556290239#3 556290239#4 547766101#0 547766101#1 547766101#2 547766101#3 4263428#0 4263428#1 4263428#2 4263428#4 520012239#0 520012239#1 13904645#0 13904645#1 13904645#2 520012240 13904682#0 13904682#2 13904660#0 13904661 -13904661"/>
    </vehicle>

    <vehicle id="veh66" type="veh_passenger" depart="166.00" departLane="0" arrival="295.00">
        <route edges="13904691#1 1049078008 -13904675#5 -13904675#4 -13904675#3 -13904675#2 -13904675#1 -13904675#0 520012240 13904656#0 13904656#1 -4263428#4 -138406903#1 -138406903#0 -233037569 233037569"/>
    </vehicle>

    <vehicle id="veh74" type="veh_passenger" depart="186.00" departLane="0" arrival="297.00">
        <route edges="-39944039#2 -39944039#1 -39944039#0 -39117800#0 40260270#4 40260270#5 1077291753#1 20484463#0 20484463#1 20484464 20484465#0 20484465#1 20484465#2 20484465#3 -37747500#9 -37747500#8 20485044#1 39117802#1 -39117802#1"/>
    </vehicle>

    <vehicle id="veh46" type="veh_passenger" depart="116.00" departLane="0" arrival="298.00">
        <route edges="-11685019#0 376394516#3 376394516#4 376394516#5 376394516#7 39247403#1 326772508#1 326772508#2 290533428 4395609#0 4395609#1 4395609#2 4395609#3 4395931 317183888 317183891#0 317183891#3 384401184#1 384401184#2 384401184#3 384401184#4 384401184#5 4395933#1 4395933#2 4395933#5 4395933#7 4395933#8 4395933#9 4395933#10 293281653#0 293281653#1 83806428#0 83806428#1 37747137#0 37747137#1 384401180"/>
    </vehicle>

    <vehicle id="veh53" type="veh_passenger" depart="134.00" departLane="0" arrival="300.00">
        <route edges="59433203#5 547766101#2 547766101#3 -556290242#1 -556290242#0 -37692199#2 -37692199#1 -37692199#0 440034441#1 3957125#1 3957125#2 -192108787#1 -192108787#0 -52881850#2 -52881850#0 -547144817 114208220#1 114208220#2 -52879958 -14047779#1 14047779#1 52879958"/>
    </vehicle>

    <vehicle id="veh0" type="veh_passenger" depart="0.00" departLane="0" arrival="307.00">
        <route edges="372256216#1 372256216#3 372256216#5 372256216#6 -310196056 -909777279 310196055 52321641#0 52321641#1 52321641#3 52321641#4 52321641#5 317027067#0 4396159#1 1061460108#0 915820852 360319695#0 4396161#0 4396161#1 -150800558#2 -150800558#1 -150800558#0 -37692306 -150800557#1 -150800557#0 -384401180 -37747137#1 -37747137#0 4385874#0 4385874#1 37747728#0 37747728#1 293281654#1 293281654#2 915820855 40260270#1 40260270#2 40260270#3 40260270#4 40260270#5 556290239#0 556290239#1 556290239#2 556290239#3 556290239#4 547766101#0 128396777#0 128396777#1 128396777#2 -128396777#2"/>
    </vehicle>

    <vehicle id="veh58" type="veh_passenger" depart="146.00" departLane="1" arrival="311.00">
        <route edges="-1008992999 -37747501 37747503#0 37747503#1 -70726569 -740743747 -258341362 -55814746 37747135#0 37747135#1 37747135#2 37747645#1 37747645#2 293281653#0 293281653#1 83806426#0 83806426#1 83806426#2 83806426#4 -372245390#1 -37692198#3 -37692198#1 -37692198#0 -192108787#1 -192108787#0 -52881850#2 -52881850#0 -547144817 -548793704#0"/>
    </vehicle>

    <vehicle id="veh16" type="veh_passenger" depart="41.00" departLane="0" arrival="313.00">
        <route edges="-81982573#1 -81982573#0 81982573#0 81982573#1 81982573#2 81982573#3 376394516#0 376394516#2 376394516#3 376394516#4 376394516#5 376394516#7 39247403#1 326772508#1 326772508#2 290533428 4395609#0 4395609#1 4395609#2 4395609#3 4395931 317183888 317183891#0 317183891#3 4395830 4395858#0 4395858#1 4395858#2 4395858#4 4395858#5 80448023#0 80448023#1 -37692282#7 -37692282#6 -37692282#5 -24450825#2 24450825#2"/>
    </vehicle>

    <vehicle id="veh67" type="veh_passenger" depart="169.00" departLane="0" arrival="334.00">
        <route edges="-4395890 4395890 -80448023#2 -80448023#0 -4395858#5 -4395858#4 -4395858#2 -4395858#1 -4395858#0 -4395830 -317183891#3 -317183891#0 -317183888 -32117787 4395775#0 4395775#1 4395775#2 4395775#4 632121623#0 632121623#1 -14047825#3 -14047825#2 14047498#0 63360386#0 528916932"/>
    </vehicle>

    <vehicle id="veh77" type="veh_passenger" depart="194.00" departLane="0" arrival="339.00">
        <route edges="-41565491#0 915824361#1 14044836#2 4937069 4937070#0 20485040#1 20485040#2 20485040#3 20485040#4 20485040#5 20485040#6 20485040#8 20485040#9 20485040#10 20485040#11 20485040#12 20485040#13 -70726569 -740743747 -258341362 -55814746 37747135#0 37747135#1"/>
    </vehicle>

    <vehicle id="veh48" type="veh_passenger" depart="121.00" departLane="0" arrival="342.00">
        <route edges="-4395933#5 -4395933#2 -4395933#1 -4395933#0 -384401184#4 -384401184#3 -384401184#2 -384401184#1 -317183891#3 -317183891#0 -317183888 -32117787 4395775#0 4395775#1 4395775#2 4395775#4 632121623#0 632121623#1 632121623#2 632121623#3 32117786#1 32117786#2 32117786#3 32117786#4 32117786#5 32117786#6 32117786#8 317183878 4396147#0 4396147#1 4396147#2 998772222#0 998772222#1 998772222#2 998772220#0 370381577#0 370381577#1 52324405 585819381#0 585819381#1 909777280 585819382 893972083 3789571#0 3789571#1 3789571#2 3789571#3 3789571#4 876578186 3708838#2"/>
    </vehicle>

    <vehicle id="veh54" type="veh_passenger" depart="136.00" departLane="0" arrival="343.00">
        <route edges="-48985674 -3789372#4 -3789372#3 -48985679 372256216#3 372256216#5 372256216#6 585819384 585819383#0 585819383#1 -52324405 -370381577#1 -370381577#0 -998772220#0 998776255 998772221#0 998772221#2 -4396147#2 -4396147#1 -4396147#0 -317183878 -32117786#8 -32117786#7 -32117786#5 -32117786#4 -32117786#3 -32117786#2 -32117786#1 -632121623#3 -632121623#2 -632121623#1 -632121623#0 -4395775#4 -4395775#2 -4395775#1 -4395775#0 3787117#1 32117788#0 32117788#1 -871451863#5 -871451863#4 -871451863#2 -871451863#1 -871451863#0 -3708865#8 -3708865#6 -3708865#5 -3708865#4 -3708865#3 -3708865#2 3708681#0 3708681#2 3708681#3"/>
    </vehicle>

    <vehicle id="veh57" type="veh_passenger" depart="144.00" departLane="0" arrival="343.00">
        <route edges="432565295#3 432565295#4 432565295#6 432565295#7 432565295#8 585819383#0 585819383#1 -52324405 -370381577#1 -370381577#0 -998772220#0 998776255 998772221#0 998772221#2 -4396147#2 -4396147#1 -4396147#0 -317183878 -32117786#8 -32117786#7 -32117786#5 -32117786#4 -32117786#3 -32117786#2 -32117786#1 -632121623#3 -632121623#2 -632121623#1 -632121623#0 -4395775#4 -4395775#2 -4395775#1 -4395775#0 3787117#1 32117788#0 32117788#1 32117788#4 32117788#6 32117788#8 32117788#9 4937069 4937070#0 20485040#1 20485040#2 20485040#3 20485040#4"/>
    </vehicle>

    <vehicle id="veh73" type="veh_passenger" depart="184.00" departLane="0" arrival="343.00">
        <route edges="-59433203#0 59433203#0 59433203#1 59433203#2 59433203#3 59433203#5 -547766101#1 -547766101#0 -556290239#4 -556290239#3 -556290239#2 -556290239#1 -556290239#0 -40260270#5 -40260270#4 -40260270#3 -40260270#2 -40260270#1 -40260270#0 -293281654#2 -293281654#1 37747133#1 37747008#0 37747008#1 55814746 4937068 917565357 70726569 128185886#1 128185886#2 37747501 1008992999 317149206"/>
    </vehicle>

    <vehicle id="veh17" type="veh_passenger" depart="43.00" departLane="0" arrival="344.00">
        <route edges="4541289#4 4541289#5 -4541289#5 -4541289#4 -4541289#3 -4541289#2 -4541289#1 -4541289#0 -37747501 37747503#0 37747503#1 -70726569 -740743747 -258341362 -55814746 37747135#0 37747135#1 37747135#2 37747645#1 37747645#2 293281653#0 293281653#1 83806428#0 83806428#1 37747137#0 37747137#1 384401180 150800557#0 150800557#1 37692306 150800558#0 150800558#1 150800558#2 -4396161#1 -4396161#0 -360319695#0 -915820852 -1061460108#0 -4396159#1 -317027067#1 35078321#0 35078321#1 35078321#2 -38358177 35078322#1 35078322#2 35078322#3"/>
    </vehicle>

    <vehicle id="veh51" type="veh_passenger" depart="129.00" departLane="0" arrival="354.00">
        <route edges="52879958 -192108789#2 -192108789#1 -192108789#0 -121166756#0 37746962 915818298 37692198#1 37692198#3 372245390#1 -83806426#4 -83806426#3 -83806426#1 -83806426#0 37747728#0 37747728#1 -4395933#10 -4395933#9 -4395933#8 -4395933#7 -4395933#5 -4395933#2 -4395933#1 -4395933#0 -384401184#4 -384401184#3 -384401184#2 -384401184#1 4395830 4395858#0 -4395858#0"/>
    </vehicle>

    <vehicle id="veh68" type="veh_passenger" depart="171.00" departLane="0" arrival="357.00">
        <route edges="12341254#1 584286613 481221021 162745567#1 162745567#3 162745567#4 37746962 915818298 37692198#1 37692198#3 372245390#1 -83806426#4 -83806426#3 -83806426#1 -83806426#0 -55668404#1 -55668404#0 -4540420 3809981#1 3809981#2 -3809981#2"/>
    </vehicle>

    <vehicle id="veh32" type="veh_passenger" depart="81.00" departLane="0" arrival="361.00">
        <route edges="-3809980#0 3809980#0 4395933#8 4395933#9 4395933#10 293281653#0 293281653#1 83806426#0 83806426#1 83806426#2 83806426#4 -372245390#1 -37692198#3 -37692198#1 -37692198#0 -37746962 -162745567#4 -162745567#3 -162745567#2 125865744#0 125865744#1 125865744#2 52288972#0 52288972#1 529166768#0 768702586#1 768702586#2"/>
    </vehicle>

    <vehicle id="veh82" type="veh_passenger" depart="207.00" departLane="0" arrival="361.00">
        <route edges="-22566799#1 -371391166#2 -371391166#1 -371391166#0 -366887650#2 -366887650#0 -20484465#3 -20484465#2 -20484465#1 -20484465#0 -905928189 -20484463#1 -20484463#0 -1077291753#1 -3936652#3 -3936652#2 -3936652#1 -3936652#0 3936651#0 3936651#2 128396774#0"/>
    </vehicle>

    <vehicle id="veh10" type="veh_passenger" depart="26.00" departLane="0" arrival="364.00">
        <route edges="-59433205 -59433204#0 55814730#3 55814730#4 55814730#5 59433203#2 59433203#3 59433203#5 547766101#2 547766101#3 4263428#0 4263428#1 4263428#2 4263428#4 520012239#0 520012239#1 37866820 -354359921 -354359922 -520012242 -37865180#2 -37865180#0 -37865179#1 -1070300806 -162745568#3 -162745568#2 -162745568#1 -162745568#0 -7664730#8 -7664730#7 8045273#2 8045273#4 8045273#5 8045273#6 8045273#8 12341224 354369976#0 354369976#3 354369976#4 354369976#5 354369976#6 354369976#8 354369976#9 354369976#10 45825602#0 -45825602#0 -354369976#10 -354369976#9 -354369976#8 -354369976#6"/>
    </vehicle>

    <vehicle id="veh47" type="veh_passenger" depart="119.00" departLane="0" arrival="364.00">
        <route edges="3785445#3 3785445#4 3785445#5 3785445#6 83517075#0 83517075#1 4395609#0 4395609#1 4395609#2 4395609#3 4395931 317183888 317183891#0 317183891#3 384401184#1 384401184#2 384401184#3 384401184#4 384401184#5 4395933#1 4395933#2 4395933#5 4395933#7 4395933#8 4395933#9 4395933#10 293281654#1 293281654#2 915820855 40260270#1 40260270#2 40260270#3 40260270#4 40260270#5 556290239#0 556290239#1 556290239#2 556290239#3 556290239#4 547766101#0 547766101#1 547766101#2 547766101#3 541741587 4937392#0 4937392#1 4937392#2 4937393 4541293#1 22820607#0"/>
    </vehicle>

    <vehicle id="veh126" type="veh_passenger" depart="317.00" departLane="0" departSpeed="6.1495" speedFactor="1.1771" arrival="370.00">
        <route edges="37692415#0 3788405#1 14047779#1 52879958 -192108789#2 -192108789#1 -192108789#0 -114208222#2 -114208222#1"/>
    </vehicle>

    <vehicle id="veh59" type="veh_passenger" depart="149.00" departLane="0" arrival="378.00">
        <route edges="-128005879#2 -128005879#1 128005879#1 128005879#2 -3936652#1 -3936652#0 -685418295#0 -83806426#4 -83806426#3 -83806426#1 -83806426#0 83806428#0 83806428#1 37747137#0 37747137#1 384401180 150800557#0 150800557#1 37692306 150800558#0 150800558#1 150800558#2 -4396161#1 -4396161#0 4396161#0 4396161#1 4395699 67139159#0 -67139158#3 -67139158#2 -67139158#0 67139158#0"/>
    </vehicle>

    <vehicle id="veh97" type="veh_passenger" depart="244.00" departLane="0" arrival="378.00">
        <route edges="111286353#6 111286353#7 4385874#0 4385874#1 83806426#0 83806426#1 83806426#2 83806426#4 -372245390#1 -37692198#3 -37692198#1 -37692198#0 56760104#0 56760104#1 -13904706#4"/>
    </vehicle>

    <vehicle id="veh90" type="veh_passenger" depart="227.00" departLane="0" arrival="380.00">
        <route edges="-4215667 4215666#1 4215666#2 4215666#3 4215666#4 -2746171#11 -2746171#10 -2746171#9 -2746171#8 -2746171#7 -2746171#6 -2746171#5 -2746171#4 -2746171#3 -2746171#2 543359813#4 -3391854#1 -3391854#0 376394516#2 11685019#0 11685019#1 11685019#2 11685019#3 376394518#0 376394518#1 64270039#0 64270039#1"/>
    </vehicle>

    <vehicle id="veh50" type="veh_passenger" depart="126.00" departLane="1" arrival="383.00">